123332
  -OEChem-12032521402D

  4  3  0     0  0  0  0  0  0999 V2000
    2.5369    0.1550    0.0000 O   0  3  0  0  0  0  0  0  0  0  0  0
    3.0739    0.4650    0.0000 H   0  0  0  0  0  0  0  0  0  0  0  0
    2.0000    0.4650    0.0000 H   0  0  0  0  0  0  0  0  0  0  0  0
    2.5369   -0.4650    0.0000 H   0  0  0  0  0  0  0  0  0  0  0  0
  1  2  1  0  0  0  0
  1  3  1  0  0  0  0
  1  4  1  0  0  0  0
M  CHG  1   1   1
M  END
> <PUBCHEM_COMPOUND_CID>
123332

> <PUBCHEM_COMPOUND_CANONICALIZED>
1

> <PUBCHEM_CACTVS_COMPLEXITY>
0

> <PUBCHEM_CACTVS_HBOND_ACCEPTOR>
0

> <PUBCHEM_CACTVS_HBOND_DONOR>
1

> <PUBCHEM_CACTVS_ROTATABLE_BOND>
0

> <PUBCHEM_CACTVS_SUBSKEYS>
AAADcQAAIAAAAAAAAAAAAAAAAAAAAAAAAAAAAAAAAAAAAAAAAAAAAAAACAAAAAAAAAAAAAAAAAAAAAAAAAAAAAAAAAAAAAAAAAAAAAAAAAAAAAAAAAAAAAAAAAAAAAAAAAAAAAAAAAAAAAAAAAAAAAAAAA==

> <PUBCHEM_IUPAC_OPENEYE_NAME>
oxonium

> <PUBCHEM_IUPAC_CAS_NAME>
oxonium

> <PUBCHEM_IUPAC_NAME_MARKUP>
oxidanium

> <PUBCHEM_IUPAC_NAME>
oxidanium

> <PUBCHEM_IUPAC_SYSTEMATIC_NAME>
oxidanium

> <PUBCHEM_IUPAC_TRADITIONAL_NAME>
oxonium

> <PUBCHEM_IUPAC_INCHI>
InChI=1S/H2O/h1H2/p+1

> <PUBCHEM_IUPAC_INCHIKEY>
XLYOFNOQVPJJNP-UHFFFAOYSA-O

> <PUBCHEM_XLOGP3_AA>
-0.5

> <PUBCHEM_EXACT_MASS>
19.018389715

> <PUBCHEM_MOLECULAR_FORMULA>
H3O+

> <PUBCHEM_MOLECULAR_WEIGHT>
19.023

> <PUBCHEM_SMILES>
[OH3+]

> <PUBCHEM_CONNECTIVITY_SMILES>
[OH3+]

> <PUBCHEM_CACTVS_TPSA>
1

> <PUBCHEM_MONOISOTOPIC_WEIGHT>
19.018389715

> <PUBCHEM_TOTAL_CHARGE>
1

> <PUBCHEM_HEAVY_ATOM_COUNT>
1

> <PUBCHEM_ATOM_DEF_STEREO_COUNT>
0

> <PUBCHEM_ATOM_UDEF_STEREO_COUNT>
0

> <PUBCHEM_BOND_DEF_STEREO_COUNT>
0

> <PUBCHEM_BOND_UDEF_STEREO_COUNT>
0

> <PUBCHEM_ISOTOPIC_ATOM_COUNT>
0

> <PUBCHEM_COMPONENT_COUNT>
1

> <PUBCHEM_CACTVS_TAUTO_COUNT>
-1

> <PUBCHEM_COORDINATE_TYPE>
1
5
255

$$$$
